 Entering Link 1 = S:\Programs\Chemistry\g09w_256_nprocshared\g09w\l1.exe PID=     12996.
  
 Copyright (c) 1988,1990,1992,1993,1995,1998,2003,2009, Gaussian, Inc.
                  All Rights Reserved.
  
 This is part of the Gaussian(R) 09 program.  It is based on
 the Gaussian(R) 03 system (copyright 2003, Gaussian, Inc.),
 the Gaussian(R) 98 system (copyright 1998, Gaussian, Inc.),
 the Gaussian(R) 94 system (copyright 1995, Gaussian, Inc.),
 the Gaussian 92(TM) system (copyright 1992, Gaussian, Inc.),
 the Gaussian 90(TM) system (copyright 1990, Gaussian, Inc.),
 the Gaussian 88(TM) system (copyright 1988, Gaussian, Inc.),
 the Gaussian 86(TM) system (copyright 1986, Carnegie Mellon
 University), and the Gaussian 82(TM) system (copyright 1983,
 Carnegie Mellon University). Gaussian is a federally registered
 trademark of Gaussian, Inc.
  
 This software contains proprietary and confidential information,
 including trade secrets, belonging to Gaussian, Inc.
  
 This software is provided under written license and may be
 used, copied, transmitted, or stored only in accord with that
 written license.
  
 The following legend is applicable only to US Government
 contracts under FAR:
  
                    RESTRICTED RIGHTS LEGEND
  
 Use, reproduction and disclosure by the US Government is
 subject to restrictions as set forth in subparagraphs (a)
 and (c) of the Commercial Computer Software - Restricted
 Rights clause in FAR 52.227-19.
  
 Gaussian, Inc.
 340 Quinnipiac St., Bldg. 40, Wallingford CT 06492
  
  
 ---------------------------------------------------------------
 Warning -- This program may not be used in any manner that
 competes with the business of Gaussian, Inc. or will provide
 assistance to any competitor of Gaussian, Inc.  The licensee
 of this program is prohibited from giving any competitor of
 Gaussian, Inc. access to this program.  By using this program,
 the user acknowledges that Gaussian, Inc. is engaged in the
 business of creating and licensing software in the field of
 computational chemistry and represents and warrants to the
 licensee that it is not a competitor of Gaussian, Inc. and that
 it will not use this program in any manner prohibited above.
 ---------------------------------------------------------------
  

 Cite this work as:
 Gaussian 09, Revision A.02,
 M. J. Frisch, G. W. Trucks, H. B. Schlegel, G. E. Scuseria, 
 M. A. Robb, J. R. Cheeseman, G. Scalmani, V. Barone, B. Mennucci, 
 G. A. Petersson, H. Nakatsuji, M. Caricato, X. Li, H. P. Hratchian, 
 A. F. Izmaylov, J. Bloino, G. Zheng, J. L. Sonnenberg, M. Hada, 
 M. Ehara, K. Toyota, R. Fukuda, J. Hasegawa, M. Ishida, T. Nakajima, 
 Y. Honda, O. Kitao, H. Nakai, T. Vreven, J. A. Montgomery, Jr., 
 J. E. Peralta, F. Ogliaro, M. Bearpark, J. J. Heyd, E. Brothers, 
 K. N. Kudin, V. N. Staroverov, R. Kobayashi, J. Normand, 
 K. Raghavachari, A. Rendell, J. C. Burant, S. S. Iyengar, J. Tomasi, 
 M. Cossi, N. Rega, J. M. Millam, M. Klene, J. E. Knox, J. B. Cross, 
 V. Bakken, C. Adamo, J. Jaramillo, R. Gomperts, R. E. Stratmann, 
 O. Yazyev, A. J. Austin, R. Cammi, C. Pomelli, J. W. Ochterski, 
 R. L. Martin, K. Morokuma, V. G. Zakrzewski, G. A. Voth, 
 P. Salvador, J. J. Dannenberg, S. Dapprich, A. D. Daniels, 
 O. Farkas, J. B. Foresman, J. V. Ortiz, J. Cioslowski, 
 and D. J. Fox, Gaussian, Inc., Wallingford CT, 2009.
 
 ******************************************
 Gaussian 09:  IA32W-G09RevA.02 11-Jun-2009
                27-Jun-2013 
 ******************************************
 %NProcShared=8
 Will use up to    8 processors via shared memory.
 %Mem=1600MB
 ---------------------------
 #B3LYP/6-31+G* opt=z-matrix
 ---------------------------
 1/10=7,14=-1,18=40,26=3,38=1/1,3;
 2/12=2,17=6,18=5,29=3,40=1/2;
 3/5=1,6=6,7=11,11=2,16=1,25=1,30=1,71=1,74=-5/1,2,3;
 4//1;
 5/5=2,38=5/2;
 6/7=2,8=2,9=2,10=2,28=1/1;
 7/29=1/1,2,3,16;
 1/10=7,14=-1,18=40/3(2);
 2/29=3/2;
 99//99;
 2/29=3/2;
 3/5=1,6=6,7=11,11=2,16=1,25=1,30=1,71=1,74=-5/1,2,3;
 4/5=5,16=3/1;
 5/5=2,38=5/2;
 7//1,2,3,16;
 1/14=-1,18=40/3(-5);
 2/29=3/2;
 6/7=2,8=2,9=2,10=2,19=2,28=1/1;
 99/9=1/99;
 ---------
 CH4 + Cl-
 ---------
 Symbolic Z-matrix:
 Charge = -1 Multiplicity = 1
 C
 F                    1    CF
 X                    1     2.       2     90. 
 H                    1    CH       2    AHCH     3     0.       0
 H                    1    CH       2    AHCH     3     120.     0
 H                    1    CH       2    AHCH     4    -120.     0
 Cl                   1    CCl      3     90.      2     180.     0
       Variables:
  CH                    1.08                     
  CF                    1.1    Scan 10    0.2    
  CCl                   3.5    Scan 10   -0.2    
  AHCH                109.471                    
 
     3 tetrahedral angles replaced.
    3 tetrahedral angles replaced.

 GradGradGradGradGradGradGradGradGradGradGradGradGradGradGradGradGradGrad
 Berny optimization.
 Initialization pass.
                       ----------------------------
                       !    Initial Parameters    !
                       ! (Angstroms and Degrees)  !
 ----------------------                            ----------------------
 !      Name          Value   Derivative information (Atomic Units)     !
 ------------------------------------------------------------------------
 !       CH          1.08     estimate D2E/DX2                          !
 !       CF          1.1      Scan                                      !
 !       CCl         3.5      Scan                                      !
 !      AHCH       109.4712   estimate D2E/DX2                          !
 ------------------------------------------------------------------------
 Trust Radius=3.00D-01 FncErr=1.00D-07 GrdErr=1.00D-06
 Number of optimizations in scan= 121
 Number of steps in this run=  20 maximum allowed number of steps= 100.
 GradGradGradGradGradGradGradGradGradGradGradGradGradGradGradGradGradGrad

 ---------------------------------------------------------------------------------------------------
                            Z-MATRIX (ANGSTROMS AND DEGREES)
   CD    Cent   Atom    N1       Length/X        N2       Alpha/Y        N3        Beta/Z          J
 ---------------------------------------------------------------------------------------------------
      1      1  C 
      2      2  F        1   1.100000(     1)
      3         X        1   2.000000(     2)      2   90.000(     7)
      4      3  H        1   1.080000(     3)      2  109.471(     8)      3    0.000(    12)      0
      5      4  H        1   1.080000(     4)      2  109.471(     9)      3  120.000(    13)      0
      6      5  H        1   1.080000(     5)      2  109.471(    10)      4 -120.000(    14)      0
      7      6  Cl       1   3.500000(     6)      3   90.000(    11)      2  180.000(    15)      0
 ---------------------------------------------------------------------------------------------------
                         Z-Matrix orientation:                         
 ---------------------------------------------------------------------
 Center     Atomic      Atomic             Coordinates (Angstroms)
 Number     Number       Type             X           Y           Z
 ---------------------------------------------------------------------
      1          6           0        0.000000    0.000000    0.000000
      2          9           0        0.000000    0.000000    1.100000
      3         -1           0        2.000000    0.000000    0.000000
      4          1           0        1.018234    0.000000   -0.360000
      5          1           0       -0.509117   -0.881816   -0.360000
      6          1           0       -0.509117    0.881816   -0.360000
      7         17           0        0.000000    0.000000   -3.500000
 ---------------------------------------------------------------------
                    Distance matrix (angstroms):
                    1          2          3          4          5
     1  C    0.000000
     2  F    1.100000   0.000000
     3  X    2.000000   2.282542   0.000000
     4  H    1.080000   1.780000   1.045689   0.000000
     5  H    1.080000   1.780000   2.683816   1.763633   0.000000
     6  H    1.080000   1.780000   2.683816   1.763633   1.763633
     7  Cl   3.500000   4.600000   4.031129   3.300970   3.300970
                    6          7
     6  H    0.000000
     7  Cl   3.300970   0.000000
 Stoichiometry    CH3ClF(1-)
 Framework group  C3V[C3(FCCl),3SGV(H)]
 Deg. of freedom     4
 Full point group                 C3V     NOp   6
 Largest Abelian subgroup         CS      NOp   2
 Largest concise Abelian subgroup CS      NOp   2
                         Standard orientation:                         
 ---------------------------------------------------------------------
 Center     Atomic      Atomic             Coordinates (Angstroms)
 Number     Number       Type             X           Y           Z
 ---------------------------------------------------------------------
      1          6           0        0.000000    0.000000   -1.448000
      2          9           0        0.000000    0.000000   -2.548000
      3          1           0        0.000000    1.018234   -1.088000
      4          1           0       -0.881816   -0.509117   -1.088000
      5          1           0        0.881816   -0.509117   -1.088000
      6         17           0        0.000000    0.000000    2.052000
 ---------------------------------------------------------------------
 Rotational constants (GHZ):    161.2188465      1.6801754      1.6801754
 Standard basis: 6-31+G(d) (6D, 7F)
 There are    49 symmetry adapted basis functions of A'  symmetry.
 There are    18 symmetry adapted basis functions of A"  symmetry.
 Integral buffers will be    262144 words long.
 Raffenetti 2 integral format.
 Two-electron integral symmetry is turned on.
    67 basis functions,   132 primitive gaussians,    67 cartesian basis functions
    18 alpha electrons       18 beta electrons
       nuclear repulsion energy        84.9228254386 Hartrees.
 NAtoms=    6 NActive=    6 NUniq=    4 SFac= 1.69D+00 NAtFMM=   80 NAOKFM=F Big=F
 One-electron integrals computed using PRISM.
 NBasis=    67 RedAO= T  NBF=    49    18
 NBsUse=    67 1.00D-06 NBFU=    49    18
 Harris functional with IExCor=  402 diagonalized for initial guess.
 ExpMin= 4.38D-02 ExpMax= 2.52D+04 ExpMxC= 3.78D+03 IAcc=2 IRadAn=         0 AccDes= 0.00D+00
 HarFok:  IExCor=  402 AccDes= 0.00D+00 IRadAn=         0 IDoV= 1
 ScaDFX=  1.000000  1.000000  1.000000  1.000000
 FoFCou: FMM=F IPFlag=           0 FMFlag=      100000 FMFlg1=           0
         NFxFlg=           0 DoJE=T BraDBF=F KetDBF=T FulRan=T
         Omega=  0.000000  0.000000  1.000000  0.000000  0.000000 ICntrl=     500 IOpCl=  0
         NMat0=    1 NMatS0=    1 NMatT0=    0 NMatD0=    1 NMtDS0=    0 NMtDT0=    0
         I1Cent=           4 NGrid=           0.
 Petite list used in FoFCou.
 Initial guess orbital symmetries:
       Occupied  (A1) (A1) (A1) (A1) (E) (E) (A1) (A1) (A1) (A1)
                 (E) (E) (A1) (E) (E) (A1) (E) (E)
       Virtual   (A1) (A1) (E) (E) (A1) (E) (E) (A1) (E) (E) (A1)
                 (E) (E) (A1) (A1) (A1) (E) (E) (A1) (A1) (E) (E)
                 (A1) (E) (E) (E) (E) (E) (E) (A1) (A1) (A1) (E)
                 (E) (A1) (E) (E) (E) (E) (A1) (E) (E) (A1) (E)
                 (E) (A1) (A1) (A1) (A1)
 The electronic state of the initial guess is 1-A1.
 Requested convergence on RMS density matrix=1.00D-08 within 128 cycles.
 Requested convergence on MAX density matrix=1.00D-06.
 Requested convergence on             energy=1.00D-06.
 No special actions if energy rises.
 Keep R1 ints in memory in canonical form, NReq=3559910.
 SCF Done:  E(RB3LYP) =  -599.921050023     A.U. after   11 cycles
             Convg  =    0.1441D-08             -V/T =  2.0023

 **********************************************************************

            Population analysis using the SCF density.

 **********************************************************************

 Orbital symmetries:
       Occupied  (A1) (A1) (A1) (A1) (E) (E) (A1) (A1) (A1) (A1)
                 (E) (E) (A1) (E) (E) (A1) (E) (E)
       Virtual   (A1) (E) (E) (A1) (A1) (E) (E) (A1) (E) (E) (A1)
                 (E) (E) (A1) (A1) (A1) (E) (E) (A1) (E) (E) (A1)
                 (A1) (E) (E) (E) (E) (E) (E) (A1) (A1) (A1) (E)
                 (E) (A1) (E) (E) (E) (E) (A1) (E) (E) (A1) (E)
                 (E) (A1) (A1) (A1) (A1)
 The electronic state is 1-A1.
 Alpha  occ. eigenvalues -- -101.23438 -24.59574 -10.09587  -9.14787  -6.90569
 Alpha  occ. eigenvalues --   -6.90569  -6.90558  -1.23503  -0.56520  -0.48510
 Alpha  occ. eigenvalues --   -0.44681  -0.44681  -0.41396  -0.17661  -0.17661
 Alpha  occ. eigenvalues --   -0.03196  -0.03167  -0.03167
 Alpha virt. eigenvalues --    0.12462   0.17546   0.17546   0.19647   0.24075
 Alpha virt. eigenvalues --    0.25731   0.25731   0.28976   0.34879   0.34879
 Alpha virt. eigenvalues --    0.37915   0.38837   0.38837   0.40844   0.48338
 Alpha virt. eigenvalues --    0.53495   0.78317   0.78317   0.85368   0.86517
 Alpha virt. eigenvalues --    0.86517   0.87046   1.06036   1.06123   1.06123
 Alpha virt. eigenvalues --    1.17365   1.17365   1.17516   1.17516   1.19051
 Alpha virt. eigenvalues --    1.27322   1.40317   1.62044   1.62044   1.67826
 Alpha virt. eigenvalues --    1.70740   1.70740   1.88600   1.88600   2.13577
 Alpha virt. eigenvalues --    2.48317   2.48317   2.77150   2.82788   2.82788
 Alpha virt. eigenvalues --    3.65998   4.45402   4.57027   5.60012
          Condensed to atoms (all electrons):
              1          2          3          4          5          6
     1  C    5.168908  -0.041276   0.434171   0.434171   0.434171  -0.023087
     2  F   -0.041276   9.357270  -0.090894  -0.090894  -0.090894   0.007853
     3  H    0.434171  -0.090894   0.594062  -0.039354  -0.039354  -0.005112
     4  H    0.434171  -0.090894  -0.039354   0.594062  -0.039354  -0.005112
     5  H    0.434171  -0.090894  -0.039354  -0.039354   0.594062  -0.005112
     6  Cl  -0.023087   0.007853  -0.005112  -0.005112  -0.005112  18.011794
 Mulliken atomic charges:
              1
     1  C   -0.407058
     2  F   -0.051164
     3  H    0.146482
     4  H    0.146482
     5  H    0.146482
     6  Cl  -0.981223
 Sum of Mulliken atomic charges =  -1.00000
 Mulliken charges with hydrogens summed into heavy atoms:
              1
     1  C    0.032388
     2  F   -0.051164
     6  Cl  -0.981223
 Sum of Mulliken charges with hydrogens summed into heavy atoms =  -1.00000
 Electronic spatial extent (au):  <R**2>=            618.0123
 Charge=             -1.0000 electrons
 Dipole moment (field-independent basis, Debye):
    X=              0.0000    Y=              0.0000    Z=             -8.9470  Tot=              8.9470
 Quadrupole moment (field-independent basis, Debye-Ang):
   XX=            -29.8021   YY=            -29.8021   ZZ=            -54.7435
   XY=              0.0000   XZ=              0.0000   YZ=              0.0000
 Traceless Quadrupole moment (field-independent basis, Debye-Ang):
   XX=              8.3138   YY=              8.3138   ZZ=            -16.6276
   XY=              0.0000   XZ=              0.0000   YZ=              0.0000
 Octapole moment (field-independent basis, Debye-Ang**2):
  XXX=              0.0000  YYY=              0.2809  ZZZ=            -68.8254  XYY=              0.0000
  XXY=             -0.2809  XXZ=            -14.6366  XZZ=              0.0000  YZZ=              0.0000
  YYZ=            -14.6366  XYZ=              0.0000
 Hexadecapole moment (field-independent basis, Debye-Ang**3):
 XXXX=            -51.9559 YYYY=            -51.9559 ZZZZ=           -892.9151 XXXY=              0.0000
 XXXZ=              0.0000 YYYX=              0.0000 YYYZ=             -0.3050 ZZZX=              0.0000
 ZZZY=              0.0000 XXYY=            -17.3186 XXZZ=           -134.3897 YYZZ=           -134.3897
 XXYZ=              0.3050 YYXZ=              0.0000 ZZXY=              0.0000
 N-N= 8.492282543857D+01 E-N=-1.602293272810D+03  KE= 5.985213460813D+02
 Symmetry A'   KE= 5.447826032544D+02
 Symmetry A"   KE= 5.373874282687D+01
 Calling FoFJK, ICntrl=      2127 FMM=F ISym2X=1 I1Cent= 0 IOpClX= 0 NMat=1 NMatS=1 NMatT=0.
 ***** Axes restored to original set *****
 -------------------------------------------------------------------
 Center     Atomic                   Forces (Hartrees/Bohr)
 Number     Number              X              Y              Z
 -------------------------------------------------------------------
      1        6           0.000000000    0.000000000   -0.456894846
      2        9           0.000000000    0.000000000    0.541244369
      3        1           0.015405915    0.000000000   -0.027678787
      4        1          -0.007702958   -0.013341914   -0.027678787
      5        1          -0.007702958    0.013341914   -0.027678787
      6       17           0.000000000    0.000000000   -0.001313163
 -------------------------------------------------------------------
 Cartesian Forces:  Max     0.541244369 RMS     0.167449904
 -----------------------------------------------------------------------------------------------
                       Internal Coordinate Forces (Hartree/Bohr or radian)
  Cent   Atom   N1       Length/X         N2         Alpha/Y        N3         Beta/Z          J
 -----------------------------------------------------------------------------------------------
      1  C 
      2  F        1   0.541244(     1)
         X        1   0.000000(     2)      2   0.000000(     7)
      3  H        1   0.023751(     3)      2   0.042778(     8)      3   0.000000(    12)     0
      4  H        1   0.023751(     4)      2   0.042778(     9)      3   0.000000(    13)     0
      5  H        1   0.023751(     5)      2   0.042778(    10)      4   0.000000(    14)     0
      6  Cl       1   0.001313(     6)      3   0.000000(    11)      2   0.000000(    15)     0
 -----------------------------------------------------------------------------------------------
 Internal  Forces:  Max     0.541244369 RMS     0.141451878

 GradGradGradGradGradGradGradGradGradGradGradGradGradGradGradGradGradGrad
 Berny optimization.
 Search for a local minimum.
 Step number   1 out of a maximum of   20 on scan point     1 out of   121
 All quantities printed in internal units (Hartrees-Bohrs-Radians)
 Second derivative matrix not updated -- first step.
 The second derivative matrix:
                          CH        CF        CCl      AHCH
           CH           1.07983
           CF           0.00000   1.76720
           CCl          0.00000   0.00000   0.01313
           AHCH         0.00000   0.00000   0.00000   1.45483
     Eigenvalues ---    1.07983   1.454831000.000001000.00000
 RFO step:  Lambda=-1.58327306D-02 EMin= 1.07982974D+00
 Linear search not attempted -- first point.
 Variable       Old X    -DE/DX   Delta X   Delta X   Delta X     New X
                                 (Linear)    (Quad)   (Total)
    CH        2.04090   0.07125   0.00000   0.06503   0.06503   2.10594
    CF        2.07870   0.54124   0.00000   0.00000   0.00000   2.07870
   CCl        6.61404   0.00131   0.00000   0.00000   0.00000   6.61404
   AHCH       1.91063   0.12834   0.00000   0.08726   0.08726   1.99790
         Item               Value     Threshold  Converged?
 Maximum Force            0.128335     0.000450     NO 
 RMS     Force            0.103795     0.000300     NO 
 Maximum Displacement     0.087264     0.001800     NO 
 RMS     Displacement     0.054415     0.001200     NO 
 Predicted change in Energy=-8.010128D-03
 GradGradGradGradGradGradGradGradGradGradGradGradGradGradGradGradGradGrad

 ---------------------------------------------------------------------------------------------------
                            Z-MATRIX (ANGSTROMS AND DEGREES)
   CD    Cent   Atom    N1       Length/X        N2       Alpha/Y        N3        Beta/Z          J
 ---------------------------------------------------------------------------------------------------
      1      1  C 
      2      2  F        1   1.100000(     1)
      3         X        1   2.000000(     2)      2   90.000(     7)
      4      3  H        1   1.114414(     3)      2  114.471(     8)      3    0.000(    12)      0
      5      4  H        1   1.114414(     4)      2  114.471(     9)      3  120.000(    13)      0
      6      5  H        1   1.114414(     5)      2  114.471(    10)      4 -120.000(    14)      0
      7      6  Cl       1   3.500000(     6)      3   90.000(    11)      2  180.000(    15)      0
 ---------------------------------------------------------------------------------------------------
                         Z-Matrix orientation:                         
 ---------------------------------------------------------------------
 Center     Atomic      Atomic             Coordinates (Angstroms)
 Number     Number       Type             X           Y           Z
 ---------------------------------------------------------------------
      1          6           0        0.000000    0.000000    0.000000
      2          9           0        0.000000    0.000000    1.100000
      3         -1           0        2.000000    0.000000    0.000000
      4          1           0        1.014307    0.000000   -0.461627
      5          1           0       -0.507153   -0.878415   -0.461627
      6          1           0       -0.507153    0.878415   -0.461627
      7         17           0        0.000000    0.000000   -3.500000
 ---------------------------------------------------------------------
                    Distance matrix (angstroms):
                    1          2          3          4          5
     1  C    0.000000
     2  F    1.100000   0.000000
     3  X    2.000000   2.282542   0.000000
     4  H    1.114414   1.862122   1.088435   0.000000
     5  H    1.114414   1.862122   2.696392   1.756830   0.000000
     6  H    1.114414   1.862122   2.696392   1.756830   1.756830
     7  Cl   3.500000   4.600000   4.031129   3.203206   3.203206
                    6          7
     6  H    0.000000
     7  Cl   3.203206   0.000000
 Stoichiometry    CH3ClF(1-)
 Framework group  C3V[C3(FCCl),3SGV(H)]
 Deg. of freedom     4
 Full point group                 C3V     NOp   6
 Largest Abelian subgroup         CS      NOp   2
 Largest concise Abelian subgroup CS      NOp   2
                         Standard orientation:                         
 ---------------------------------------------------------------------
 Center     Atomic      Atomic             Coordinates (Angstroms)
 Number     Number       Type             X           Y           Z
 ---------------------------------------------------------------------
      1          6           0        0.000000    0.000000   -1.456711
      2          9           0        0.000000    0.000000   -2.556711
      3          1           0        0.000000    1.014307   -0.995084
      4          1           0       -0.878415   -0.507153   -0.995084
      5          1           0        0.878415   -0.507153   -0.995084
      6         17           0        0.000000    0.000000    2.043289
 ---------------------------------------------------------------------
 Rotational constants (GHZ):    162.4696928      1.6839528      1.6839528
 Standard basis: 6-31+G(d) (6D, 7F)
 There are    49 symmetry adapted basis functions of A'  symmetry.
 There are    18 symmetry adapted basis functions of A"  symmetry.
 Integral buffers will be    262144 words long.
 Raffenetti 2 integral format.
 Two-electron integral symmetry is turned on.
    67 basis functions,   132 primitive gaussians,    67 cartesian basis functions
    18 alpha electrons       18 beta electrons
       nuclear repulsion energy        84.5494942441 Hartrees.
 NAtoms=    6 NActive=    6 NUniq=    4 SFac= 1.69D+00 NAtFMM=   80 NAOKFM=F Big=F
 One-electron integrals computed using PRISM.
 NBasis=    67 RedAO= T  NBF=    49    18
 NBsUse=    67 1.00D-06 NBFU=    49    18
 Initial guess read from the read-write file.
 B after Tr=     0.000000    0.000000    0.000000
         Rot=    1.000000    0.000000    0.000000    0.000000 Ang=   0.00 deg.
 Initial guess orbital symmetries:
       Occupied  (A1) (A1) (A1) (A1) (E) (E) (A1) (A1) (A1) (A1)
                 (E) (E) (A1) (E) (E) (A1) (E) (E)
       Virtual   (A1) (E) (E) (A1) (A1) (E) (E) (A1) (E) (E) (A1)
                 (E) (E) (A1) (A1) (A1) (E) (E) (A1) (E) (E) (A1)
                 (A1) (E) (E) (E) (E) (E) (E) (A1) (A1) (A1) (E)
                 (E) (A1) (E) (E) (E) (E) (A1) (E) (E) (A1) (E)
                 (E) (A1) (A1) (A1) (A1)
 Harris functional with IExCor=  402 diagonalized for initial guess.
 ExpMin= 4.38D-02 ExpMax= 2.52D+04 ExpMxC= 3.78D+03 IAcc=2 IRadAn=         0 AccDes= 0.00D+00
 HarFok:  IExCor=  402 AccDes= 0.00D+00 IRadAn=         0 IDoV= 1
 ScaDFX=  1.000000  1.000000  1.000000  1.000000
 FoFCou: FMM=F IPFlag=           0 FMFlag=      100000 FMFlg1=           0
         NFxFlg=           0 DoJE=T BraDBF=F KetDBF=T FulRan=T
         Omega=  0.000000  0.000000  1.000000  0.000000  0.000000 ICntrl=     500 IOpCl=  0
         NMat0=    1 NMatS0=    1 NMatT0=    0 NMatD0=    1 NMtDS0=    0 NMtDT0=    0
         I1Cent=           4 NGrid=           0.
 Petite list used in FoFCou.
 Requested convergence on RMS density matrix=1.00D-08 within 128 cycles.
 Requested convergence on MAX density matrix=1.00D-06.
 Requested convergence on             energy=1.00D-06.
 No special actions if energy rises.
 Keep R1 ints in memory in canonical form, NReq=3559910.
 SCF Done:  E(RB3LYP) =  -599.929890536     A.U. after   10 cycles
             Convg  =    0.1306D-08             -V/T =  2.0027
 Calling FoFJK, ICntrl=      2127 FMM=F ISym2X=1 I1Cent= 0 IOpClX= 0 NMat=1 NMatS=1 NMatT=0.
 ***** Axes restored to original set *****
 -------------------------------------------------------------------
 Center     Atomic                   Forces (Hartrees/Bohr)
 Number     Number              X              Y              Z
 -------------------------------------------------------------------
      1        6           0.000000000    0.000000000   -0.496284596
      2        9           0.000000000    0.000000000    0.508473899
      3        1           0.000229432    0.000000000   -0.003611051
      4        1          -0.000114716   -0.000198694   -0.003611051
      5        1          -0.000114716    0.000198694   -0.003611051
      6       17           0.000000000    0.000000000   -0.001356149
 -------------------------------------------------------------------
 Cartesian Forces:  Max     0.508473899 RMS     0.167478891
 -----------------------------------------------------------------------------------------------
                       Internal Coordinate Forces (Hartree/Bohr or radian)
  Cent   Atom   N1       Length/X         N2         Alpha/Y        N3         Beta/Z          J
 -----------------------------------------------------------------------------------------------
      1  C 
      2  F        1   0.508474(     1)
         X        1   0.000000(     2)      2   0.000000(     7)
      3  H        1   0.001705(     3)      2   0.006721(     8)      3   0.000000(    12)     0
      4  H        1   0.001705(     4)      2   0.006721(     9)      3   0.000000(    13)     0
      5  H        1   0.001705(     5)      2   0.006721(    10)      4   0.000000(    14)     0
      6  Cl       1   0.001356(     6)      3   0.000000(    11)      2   0.000000(    15)     0
 -----------------------------------------------------------------------------------------------
 Internal  Forces:  Max     0.508473899 RMS     0.131324482

 GradGradGradGradGradGradGradGradGradGradGradGradGradGradGradGradGradGrad
 Berny optimization.
 Search for a local minimum.
 Step number   2 out of a maximum of   20 on scan point     1 out of   121
 All quantities printed in internal units (Hartrees-Bohrs-Radians)
 Update second derivatives using D2CorN and points    1    2
 DE= -8.84D-03 DEPred=-8.01D-03 R= 1.10D+00
 SS=  1.41D+00  RLast= 1.09D-01 DXNew= 5.0454D-01 3.2649D-01
 Trust test= 1.10D+00 RLast= 1.09D-01 DXMaxT set to 3.26D-01
 The second derivative matrix:
                          CH        CF        CCl      AHCH
           CH           1.05740
           CF           0.08997   1.76720
           CCl         -0.00012   0.00000   0.01313
           AHCH        -0.06661   0.12072  -0.00016   1.31645
     Eigenvalues ---    1.04128   1.332571000.000001000.00000
 RFO step:  Lambda=-3.07977163D-05 EMin= 1.04127973D+00
 Quartic linear search produced a step of  0.16218.
 Variable       Old X    -DE/DX   Delta X   Delta X   Delta X     New X
                                 (Linear)    (Quad)   (Total)
    CH        2.10594   0.00511   0.01055  -0.00444   0.00611   2.11204
    CF        2.07870   0.50847   0.00000   0.00000   0.00000   2.07870
   CCl        6.61404   0.00136   0.00000   0.00000   0.00000   6.61404
   AHCH       1.99790   0.02016   0.01415   0.00253   0.01668   2.01458
         Item               Value     Threshold  Converged?
 Maximum Force            0.020164     0.000450     NO 
 RMS     Force            0.014710     0.000300     NO 
 Maximum Displacement     0.016681     0.001800     NO 
 RMS     Displacement     0.008882     0.001200     NO 
 Predicted change in Energy=-1.715017D-04
 GradGradGradGradGradGradGradGradGradGradGradGradGradGradGradGradGradGrad

 ---------------------------------------------------------------------------------------------------
                            Z-MATRIX (ANGSTROMS AND DEGREES)
   CD    Cent   Atom    N1       Length/X        N2       Alpha/Y        N3        Beta/Z          J
 ---------------------------------------------------------------------------------------------------
      1      1  C 
      2      2  F        1   1.100000(     1)
      3         X        1   2.000000(     2)      2   90.000(     7)
      4      3  H        1   1.117645(     3)      2  115.427(     8)      3    0.000(    12)      0
      5      4  H        1   1.117645(     4)      2  115.427(     9)      3  120.000(    13)      0
      6      5  H        1   1.117645(     5)      2  115.427(    10)      4 -120.000(    14)      0
      7      6  Cl       1   3.500000(     6)      3   90.000(    11)      2  180.000(    15)      0
 ---------------------------------------------------------------------------------------------------
                         Z-Matrix orientation:                         
 ---------------------------------------------------------------------
 Center     Atomic      Atomic             Coordinates (Angstroms)
 Number     Number       Type             X           Y           Z
 ---------------------------------------------------------------------
      1          6           0        0.000000    0.000000    0.000000
      2          9           0        0.000000    0.000000    1.100000
      3         -1           0        2.000000    0.000000    0.000000
      4          1           0        1.009383    0.000000   -0.479870
      5          1           0       -0.504692   -0.874152   -0.479870
      6          1           0       -0.504692    0.874152   -0.479870
      7         17           0        0.000000    0.000000   -3.500000
 ---------------------------------------------------------------------
                    Distance matrix (angstroms):
                    1          2          3          4          5
     1  C    0.000000
     2  F    1.100000   0.000000
     3  X    2.000000   2.282542   0.000000
     4  H    1.117645   1.874791   1.100725   0.000000
     5  H    1.117645   1.874791   2.695904   1.748303   0.000000
     6  H    1.117645   1.874791   2.695904   1.748303   1.748303
     7  Cl   3.500000   4.600000   4.031129   3.184343   3.184343
                    6          7
     6  H    0.000000
     7  Cl   3.184343   0.000000
 Stoichiometry    CH3ClF(1-)
 Framework group  C3V[C3(FCCl),3SGV(H)]
 Deg. of freedom     4
 Full point group                 C3V     NOp   6
 Largest Abelian subgroup         CS      NOp   2
 Largest concise Abelian subgroup CS      NOp   2
                         Standard orientation:                         
 ---------------------------------------------------------------------
 Center     Atomic      Atomic             Coordinates (Angstroms)
 Number     Number       Type             X           Y           Z
 ---------------------------------------------------------------------
      1          6           0        0.000000    0.000000   -1.458275
      2          9           0        0.000000    0.000000   -2.558275
      3          1           0        0.000000    1.009383   -0.978405
      4          1           0       -0.874152   -0.504692   -0.978405
      5          1           0        0.874152   -0.504692   -0.978405
      6         17           0        0.000000    0.000000    2.041725
 ---------------------------------------------------------------------
 Rotational constants (GHZ):    164.0583856      1.6846696      1.6846696
 Standard basis: 6-31+G(d) (6D, 7F)
 There are    49 symmetry adapted basis functions of A'  symmetry.
 There are    18 symmetry adapted basis functions of A"  symmetry.
 Integral buffers will be    262144 words long.
 Raffenetti 2 integral format.
 Two-electron integral symmetry is turned on.
    67 basis functions,   132 primitive gaussians,    67 cartesian basis functions
    18 alpha electrons       18 beta electrons
       nuclear repulsion energy        84.5272453639 Hartrees.
 NAtoms=    6 NActive=    6 NUniq=    4 SFac= 1.69D+00 NAtFMM=   80 NAOKFM=F Big=F
 One-electron integrals computed using PRISM.
 NBasis=    67 RedAO= T  NBF=    49    18
 NBsUse=    67 1.00D-06 NBFU=    49    18
 Initial guess read from the read-write file.
 B after Tr=     0.000000    0.000000    0.000000
         Rot=    1.000000    0.000000    0.000000    0.000000 Ang=   0.00 deg.
 Initial guess orbital symmetries:
       Occupied  (A1) (A1) (A1) (A1) (E) (E) (A1) (A1) (A1) (A1)
                 (E) (E) (A1) (E) (E) (A1) (E) (E)
       Virtual   (A1) (E) (E) (A1) (A1) (E) (E) (A1) (E) (E) (E)
                 (E) (A1) (A1) (A1) (A1) (E) (E) (A1) (E) (E) (A1)
                 (E) (E) (A1) (E) (E) (E) (E) (A1) (A1) (A1) (E)
                 (E) (A1) (E) (E) (E) (E) (A1) (E) (E) (A1) (E)
                 (E) (A1) (A1) (A1) (A1)
 Requested convergence on RMS density matrix=1.00D-08 within 128 cycles.
 Requested convergence on MAX density matrix=1.00D-06.
 Requested convergence on             energy=1.00D-06.
 No special actions if energy rises.
 Keep R1 ints in memory in canonical form, NReq=3559910.
 SCF Done:  E(RB3LYP) =  -599.930072561     A.U. after    9 cycles
             Convg  =    0.3733D-08             -V/T =  2.0027
 Calling FoFJK, ICntrl=      2127 FMM=F ISym2X=1 I1Cent= 0 IOpClX= 0 NMat=1 NMatS=1 NMatT=0.
 ***** Axes restored to original set *****
 -------------------------------------------------------------------
 Center     Atomic                   Forces (Hartrees/Bohr)
 Number     Number              X              Y              Z
 -------------------------------------------------------------------
      1        6           0.000000000    0.000000000   -0.502606247
      2        9           0.000000000    0.000000000    0.503846703
      3        1           0.000004448    0.000000000    0.000028987
      4        1          -0.000002224   -0.000003852    0.000028987
      5        1          -0.000002224    0.000003852    0.000028987
      6       17           0.000000000    0.000000000   -0.001327418
 -------------------------------------------------------------------
 Cartesian Forces:  Max     0.503846703 RMS     0.167742578
 -----------------------------------------------------------------------------------------------
                       Internal Coordinate Forces (Hartree/Bohr or radian)
  Cent   Atom   N1       Length/X         N2         Alpha/Y        N3         Beta/Z          J
 -----------------------------------------------------------------------------------------------
      1  C 
      2  F        1   0.503847(     1)
         X        1   0.000000(     2)      2   0.000000(     7)
      3  H        1  -0.000008(     3)      2  -0.000059(     8)      3   0.000000(    12)     0
      4  H        1  -0.000008(     4)      2  -0.000059(     9)      3   0.000000(    13)     0
      5  H        1  -0.000008(     5)      2  -0.000059(    10)      4   0.000000(    14)     0
      6  Cl       1   0.001327(     6)      3   0.000000(    11)      2   0.000000(    15)     0
 -----------------------------------------------------------------------------------------------
 Internal  Forces:  Max     0.503846703 RMS     0.130093114

 GradGradGradGradGradGradGradGradGradGradGradGradGradGradGradGradGradGrad
 Berny optimization.
 Search for a local minimum.
 Step number   3 out of a maximum of   20 on scan point     1 out of   121
 All quantities printed in internal units (Hartrees-Bohrs-Radians)
 Update second derivatives using D2CorN and points    1    2    3
 DE= -1.82D-04 DEPred=-1.72D-04 R= 1.06D+00
 SS=  1.41D+00  RLast= 1.78D-02 DXNew= 5.4909D-01 5.3291D-02
 Trust test= 1.06D+00 RLast= 1.78D-02 DXMaxT set to 3.26D-01
 The second derivative matrix:
                          CH        CF        CCl      AHCH
           CH           1.06464
           CF           0.13910   1.76720
           CCl          0.00021   0.00000   0.01313
           AHCH        -0.08128   0.20239   0.00071   1.24909
     Eigenvalues ---    1.03393   1.279801000.000001000.00000
 RFO step:  Lambda= 0.00000000D+00 EMin= 1.03393387D+00
 Quartic linear search produced a step of -0.00845.
 Variable       Old X    -DE/DX   Delta X   Delta X   Delta X     New X
                                 (Linear)    (Quad)   (Total)
    CH        2.11204  -0.00003  -0.00005   0.00002  -0.00004   2.11201
    CF        2.07870   0.50385   0.00000   0.00000   0.00000   2.07870
   CCl        6.61404   0.00133   0.00000   0.00000   0.00000   6.61404
   AHCH       2.01458  -0.00018  -0.00014   0.00000  -0.00015   2.01443
         Item               Value     Threshold  Converged?
 Maximum Force            0.000178     0.000450     YES
 RMS     Force            0.000127     0.000300     YES
 Maximum Displacement     0.000145     0.001800     YES
 RMS     Displacement     0.000075     0.001200     YES
 Predicted change in Energy=-1.332077D-08
 Optimization completed.
    -- Stationary point found.
                       ----------------------------
                       !   Optimized Parameters   !
                       ! (Angstroms and Degrees)  !
 ----------------------                            ----------------------
 !      Name          Value   Derivative information (Atomic Units)     !
 ------------------------------------------------------------------------
 !       CH          1.1176   -DE/DX =    0.0                           !
 !       CF          1.1      -DE/DX =    0.5038                        !
 !       CCl         3.5      -DE/DX =    0.0013                        !
 !      AHCH       115.4268   -DE/DX =   -0.0002                        !
 ------------------------------------------------------------------------
 GradGradGradGradGradGradGradGradGradGradGradGradGradGradGradGradGradGrad

 ---------------------------------------------------------------------------------------------------
                            Z-MATRIX (ANGSTROMS AND DEGREES)
   CD    Cent   Atom    N1       Length/X        N2       Alpha/Y        N3        Beta/Z          J
 ---------------------------------------------------------------------------------------------------
      1      1  C 
      2      2  F        1   1.300000(     1)
      3         X        1   2.000000(     2)      2   90.000(     7)
      4      3  H        1   1.117645(     3)      2  115.427(     8)      3    0.000(    12)      0
      5      4  H        1   1.117645(     4)      2  115.427(     9)      3  120.000(    13)      0
      6      5  H        1   1.117645(     5)      2  115.427(    10)      4 -120.000(    14)      0
      7      6  Cl       1   3.500000(     6)      3   90.000(    11)      2  180.000(    15)      0
 ---------------------------------------------------------------------------------------------------
                         Z-Matrix orientation:                         
 ---------------------------------------------------------------------
 Center     Atomic      Atomic             Coordinates (Angstroms)
 Number     Number       Type             X           Y           Z
 ---------------------------------------------------------------------
      1          6           0        0.000000    0.000000    0.000000
      2          9           0        0.000000    0.000000    1.300000
      3         -1           0        2.000000    0.000000    0.000000
      4          1           0        1.009383    0.000000   -0.479870
      5          1           0       -0.504692   -0.874152   -0.479870
      6          1           0       -0.504692    0.874152   -0.479870
      7         17           0        0.000000    0.000000   -3.500000
 ---------------------------------------------------------------------
                    Distance matrix (angstroms):
                    1          2          3          4          5
     1  C    0.000000
     2  F    1.300000   0.000000
     3  X    2.000000   2.385372   0.000000
     4  H    1.117645   2.046165   1.100725   0.000000
     5  H    1.117645   2.046165   2.695904   1.748303   0.000000
     6  H    1.117645   2.046165   2.695904   1.748303   1.748303
     7  Cl   3.500000   4.800000   4.031129   3.184343   3.184343
                    6          7
     6  H    0.000000
     7  Cl   3.184343   0.000000
 Stoichiometry    CH3ClF(1-)
 Framework group  C3V[C3(FCCl),3SGV(H)]
 Deg. of freedom     4
 Full point group                 C3V     NOp   6
 Largest Abelian subgroup         CS      NOp   2
 Largest concise Abelian subgroup CS      NOp   2
                         Standard orientation:                         
 ---------------------------------------------------------------------
 Center     Atomic      Atomic             Coordinates (Angstroms)
 Number     Number       Type             X           Y           Z
 ---------------------------------------------------------------------
      1          6           0        0.000000    0.000000   -1.406846
      2          9           0        0.000000    0.000000   -2.706846
      3          1           0        0.000000    1.009383   -0.926976
      4          1           0       -0.874152   -0.504692   -0.926976
      5          1           0        0.874152   -0.504692   -0.926976
      6         17           0        0.000000    0.000000    2.093154
 ---------------------------------------------------------------------
 Rotational constants (GHZ):    164.0583856      1.5781442      1.5781442
 Standard basis: 6-31+G(d) (6D, 7F)
 There are    49 symmetry adapted basis functions of A'  symmetry.
 There are    18 symmetry adapted basis functions of A"  symmetry.
 Integral buffers will be    262144 words long.
 Raffenetti 2 integral format.
 Two-electron integral symmetry is turned on.
    67 basis functions,   132 primitive gaussians,    67 cartesian basis functions
    18 alpha electrons       18 beta electrons
       nuclear repulsion energy        79.1590063158 Hartrees.
 NAtoms=    6 NActive=    6 NUniq=    4 SFac= 1.69D+00 NAtFMM=   80 NAOKFM=F Big=F
 One-electron integrals computed using PRISM.
 NBasis=    67 RedAO= T  NBF=    49    18
 NBsUse=    67 1.00D-06 NBFU=    49    18
 Initial guess read from the read-write file.
 B after Tr=     0.000000    0.000000    0.000000
         Rot=    1.000000    0.000000    0.000000    0.000000 Ang=   0.00 deg.
 Initial guess orbital symmetries:
       Occupied  (A1) (A1) (A1) (A1) (E) (E) (A1) (A1) (A1) (A1)
                 (E) (E) (A1) (E) (E) (A1) (E) (E)
       Virtual   (A1) (E) (E) (A1) (A1) (E) (E) (A1) (E) (E) (E)
                 (E) (A1) (A1) (A1) (A1) (E) (E) (A1) (E) (E) (A1)
                 (E) (E) (A1) (E) (E) (E) (E) (A1) (A1) (A1) (E)
                 (E) (A1) (E) (E) (E) (E) (A1) (E) (E) (A1) (E)
                 (E) (A1) (A1) (A1) (A1)
 Harris functional with IExCor=  402 diagonalized for initial guess.
 ExpMin= 4.38D-02 ExpMax= 2.52D+04 ExpMxC= 3.78D+03 IAcc=2 IRadAn=         0 AccDes= 0.00D+00
 HarFok:  IExCor=  402 AccDes= 0.00D+00 IRadAn=         0 IDoV= 1
 ScaDFX=  1.000000  1.000000  1.000000  1.000000
 FoFCou: FMM=F IPFlag=           0 FMFlag=      100000 FMFlg1=           0
         NFxFlg=           0 DoJE=T BraDBF=F KetDBF=T FulRan=T
         Omega=  0.000000  0.000000  1.000000  0.000000  0.000000 ICntrl=     500 IOpCl=  0
         NMat0=    1 NMatS0=    1 NMatT0=    0 NMatD0=    1 NMtDS0=    0 NMtDT0=    0
         I1Cent=           4 NGrid=           0.
 Petite list used in FoFCou.
 Requested convergence on RMS density matrix=1.00D-08 within 128 cycles.
 Requested convergence on MAX density matrix=1.00D-06.
 Requested convergence on             energy=1.00D-06.
 No special actions if energy rises.
 Keep R1 ints in memory in canonical form, NReq=3559910.
 SCF Done:  E(RB3LYP) =  -600.025521727     A.U. after   11 cycles
             Convg  =    0.3926D-08             -V/T =  2.0042
 Calling FoFJK, ICntrl=      2127 FMM=F ISym2X=1 I1Cent= 0 IOpClX= 0 NMat=1 NMatS=1 NMatT=0.
 ***** Axes restored to original set *****
 -------------------------------------------------------------------
 Center     Atomic                   Forces (Hartrees/Bohr)
 Number     Number              X              Y              Z
 -------------------------------------------------------------------
      1        6           0.000000000    0.000000000   -0.126483612
      2        9           0.000000000    0.000000000    0.080490029
      3        1          -0.005056484    0.000000000    0.015122853
      4        1           0.002528242    0.004379043    0.015122853
      5        1           0.002528242   -0.004379043    0.015122853
      6       17           0.000000000    0.000000000    0.000625025
 -------------------------------------------------------------------
 Cartesian Forces:  Max     0.126483612 RMS     0.035931992
 -----------------------------------------------------------------------------------------------
                       Internal Coordinate Forces (Hartree/Bohr or radian)
  Cent   Atom   N1       Length/X         N2         Alpha/Y        N3         Beta/Z          J
 -----------------------------------------------------------------------------------------------
      1  C 
      2  F        1   0.080490(     1)
         X        1   0.000000(     2)      2   0.000000(     7)
      3  H        1  -0.011060(     3)      2  -0.024261(     8)      3   0.000000(    12)     0
      4  H        1  -0.011060(     4)      2  -0.024261(     9)      3   0.000000(    13)     0
      5  H        1  -0.011060(     5)      2  -0.024261(    10)      4   0.000000(    14)     0
      6  Cl       1  -0.000625(     6)      3   0.000000(    11)      2   0.000000(    15)     0
 -----------------------------------------------------------------------------------------------
 Internal  Forces:  Max     0.080490029 RMS     0.023960751

 GradGradGradGradGradGradGradGradGradGradGradGradGradGradGradGradGradGrad
 Berny optimization.
 Search for a local minimum.
 Step number   1 out of a maximum of   20 on scan point     2 out of   121
 All quantities printed in internal units (Hartrees-Bohrs-Radians)
 Second derivative matrix not updated -- first step.
 The second derivative matrix:
                          CH        CF        CCl      AHCH
           CH           1.06464
           CF           0.13910   1.76720
           CCl          0.00021   0.00000   0.01313
           AHCH        -0.08128   0.20239   0.00071   1.24909
     Eigenvalues ---    1.03393   1.279801000.000001000.00000
 RFO step:  Lambda=-5.57054018D-03 EMin= 1.03393387D+00
 Linear search not attempted -- first point.
 Variable       Old X    -DE/DX   Delta X   Delta X   Delta X     New X
                                 (Linear)    (Quad)   (Total)
    CH        2.11204  -0.03318   0.00000  -0.03558  -0.03558   2.07646
    CF        2.45664   0.08049   0.00000   0.00000   0.00000   2.45664
   CCl        6.61404  -0.00063   0.00000   0.00000   0.00000   6.61404
   AHCH       2.01458  -0.07278   0.00000  -0.06032  -0.06032   1.95426
         Item               Value     Threshold  Converged?
 Maximum Force            0.072783     0.000450     NO 
 RMS     Force            0.056561     0.000300     NO 
 Maximum Displacement     0.060315     0.001800     NO 
 RMS     Displacement     0.035015     0.001200     NO 
 Predicted change in Energy=-2.798929D-03
 GradGradGradGradGradGradGradGradGradGradGradGradGradGradGradGradGradGrad

 ---------------------------------------------------------------------------------------------------
                            Z-MATRIX (ANGSTROMS AND DEGREES)
   CD    Cent   Atom    N1       Length/X        N2       Alpha/Y        N3        Beta/Z          J
 ---------------------------------------------------------------------------------------------------
      1      1  C 
      2      2  F        1   1.300000(     1)
      3         X        1   2.000000(     2)      2   90.000(     7)
      4      3  H        1   1.098815(     3)      2  111.971(     8)      3    0.000(    12)      0
      5      4  H        1   1.098815(     4)      2  111.971(     9)      3  120.000(    13)      0
      6      5  H        1   1.098815(     5)      2  111.971(    10)      4 -120.000(    14)      0
      7      6  Cl       1   3.500000(     6)      3   90.000(    11)      2  180.000(    15)      0
 ---------------------------------------------------------------------------------------------------
                         Z-Matrix orientation:                         
 ---------------------------------------------------------------------
 Center     Atomic      Atomic             Coordinates (Angstroms)
 Number     Number       Type             X           Y           Z
 ---------------------------------------------------------------------
      1          6           0        0.000000    0.000000    0.000000
      2          9           0        0.000000    0.000000    1.300000
      3         -1           0        2.000000    0.000000    0.000000
      4          1           0        1.019011    0.000000   -0.411108
      5          1           0       -0.509506   -0.882490   -0.411108
      6          1           0       -0.509506    0.882490   -0.411108
      7         17           0        0.000000    0.000000   -3.500000
 ---------------------------------------------------------------------
                    Distance matrix (angstroms):
                    1          2          3          4          5
     1  C    0.000000
     2  F    1.300000   0.000000
     3  X    2.000000   2.385372   0.000000
     4  H    1.098815   1.991551   1.063649   0.000000
     5  H    1.098815   1.991551   2.691731   1.764979   0.000000
     6  H    1.098815   1.991551   2.691731   1.764979   1.764979
     7  Cl   3.500000   4.800000   4.031129   3.252636   3.252636
                    6          7
     6  H    0.000000
     7  Cl   3.252636   0.000000
 Stoichiometry    CH3ClF(1-)
 Framework group  C3V[C3(FCCl),3SGV(H)]
 Deg. of freedom     4
 Full point group                 C3V     NOp   6
 Largest Abelian subgroup         CS      NOp   2
 Largest concise Abelian subgroup CS      NOp   2
                         Standard orientation:                         
 ---------------------------------------------------------------------
 Center     Atomic      Atomic             Coordinates (Angstroms)
 Number     Number       Type             X           Y           Z
 ---------------------------------------------------------------------
      1          6           0        0.000000    0.000000   -1.400952
      2          9           0        0.000000    0.000000   -2.700952
      3          1           0        0.000000    1.019011   -0.989844
      4          1           0       -0.882490   -0.509506   -0.989844
      5          1           0        0.882490   -0.509506   -0.989844
      6         17           0        0.000000    0.000000    2.099048
 ---------------------------------------------------------------------
 Rotational constants (GHZ):    160.9728839      1.5759729      1.5759729
 Standard basis: 6-31+G(d) (6D, 7F)
 There are    49 symmetry adapted basis functions of A'  symmetry.
 There are    18 symmetry adapted basis functions of A"  symmetry.
 Integral buffers will be    262144 words long.
 Raffenetti 2 integral format.
 Two-electron integral symmetry is turned on.
    67 basis functions,   132 primitive gaussians,    67 cartesian basis functions
    18 alpha electrons       18 beta electrons
       nuclear repulsion energy        79.3100158302 Hartrees.
 NAtoms=    6 NActive=    6 NUniq=    4 SFac= 1.69D+00 NAtFMM=   80 NAOKFM=F Big=F
 One-electron integrals computed using PRISM.
 NBasis=    67 RedAO= T  NBF=    49    18
 NBsUse=    67 1.00D-06 NBFU=    49    18
 Initial guess read from the read-write file.
 B after Tr=     0.000000    0.000000    0.000000
         Rot=    1.000000    0.000000    0.000000    0.000000 Ang=   0.00 deg.
 Initial guess orbital symmetries:
       Occupied  (A1) (A1) (A1) (A1) (A1) (E) (E) (A1) (A1) (A1)
                 (A1) (E) (E) (E) (E) (A1) (E) (E)
       Virtual   (A1) (E) (E) (A1) (A1) (E) (E) (A1) (E) (E) (A1)
                 (E) (E) (A1) (A1) (A1) (A1) (E) (E) (A1) (E) (E)
                 (A1) (E) (E) (E) (E) (E) (E) (A1) (A1) (A1) (E)
                 (E) (E) (E) (A1) (E) (E) (A1) (E) (E) (A1) (E)
                 (E) (A1) (A1) (A1) (A1)
 Harris functional with IExCor=  402 diagonalized for initial guess.
 ExpMin= 4.38D-02 ExpMax= 2.52D+04 ExpMxC= 3.78D+03 IAcc=2 IRadAn=         0 AccDes= 0.00D+00
 HarFok:  IExCor=  402 AccDes= 0.00D+00 IRadAn=         0 IDoV= 1
 ScaDFX=  1.000000  1.000000  1.000000  1.000000
 FoFCou: FMM=F IPFlag=           0 FMFlag=      100000 FMFlg1=           0
         NFxFlg=           0 DoJE=T BraDBF=F KetDBF=T FulRan=T
         Omega=  0.000000  0.000000  1.000000  0.000000  0.000000 ICntrl=     500 IOpCl=  0
         NMat0=    1 NMatS0=    1 NMatT0=    0 NMatD0=    1 NMtDS0=    0 NMtDT0=    0
         I1Cent=           4 NGrid=           0.
 Petite list used in FoFCou.
 Requested convergence on RMS density matrix=1.00D-08 within 128 cycles.
 Requested convergence on MAX density matrix=1.00D-06.
 Requested convergence on             energy=1.00D-06.
 No special actions if energy rises.
 Keep R1 ints in memory in canonical form, NReq=3559910.
 SCF Done:  E(RB3LYP) =  -600.028765727     A.U. after   10 cycles
             Convg  =    0.1097D-08             -V/T =  2.0041
 Calling FoFJK, ICntrl=      2127 FMM=F ISym2X=1 I1Cent= 0 IOpClX= 0 NMat=1 NMatS=1 NMatT=0.
 ***** Axes restored to original set *****
 -------------------------------------------------------------------
 Center     Atomic                   Forces (Hartrees/Bohr)
 Number     Number              X              Y              Z
 -------------------------------------------------------------------
      1        6           0.000000000    0.000000000   -0.100552457
      2        9           0.000000000    0.000000000    0.093129456
      3        1          -0.000159319    0.000000000    0.002293903
      4        1           0.000079659    0.000137974    0.002293903
      5        1           0.000079659   -0.000137974    0.002293903
      6       17           0.000000000    0.000000000    0.000541293
 -------------------------------------------------------------------
 Cartesian Forces:  Max     0.100552457 RMS     0.032317906
 -----------------------------------------------------------------------------------------------
                       Internal Coordinate Forces (Hartree/Bohr or radian)
  Cent   Atom   N1       Length/X         N2         Alpha/Y        N3         Beta/Z          J
 -----------------------------------------------------------------------------------------------
      1  C 
      2  F        1   0.093129(     1)
         X        1   0.000000(     2)      2   0.000000(     7)
      3  H        1  -0.001006(     3)      2  -0.004293(     8)      3   0.000000(    12)     0
      4  H        1  -0.001006(     4)      2  -0.004293(     9)      3   0.000000(    13)     0
      5  H        1  -0.001006(     5)      2  -0.004293(    10)      4   0.000000(    14)     0
      6  Cl       1  -0.000541(     6)      3   0.000000(    11)      2   0.000000(    15)     0
 -----------------------------------------------------------------------------------------------
 Internal  Forces:  Max     0.093129456 RMS     0.024127062

 GradGradGradGradGradGradGradGradGradGradGradGradGradGradGradGradGradGrad
 Berny optimization.
 Search for a local minimum.
 Step number   2 out of a maximum of   20 on scan point     2 out of   121
 All quantities printed in internal units (Hartrees-Bohrs-Radians)
 Update second derivatives using D2CorN and points    1    2
 DE= -3.24D-03 DEPred=-2.80D-03 R= 1.16D+00
 SS=  1.41D+00  RLast= 7.00D-02 DXNew= 5.4909D-01 2.1009D-01
 Trust test= 1.16D+00 RLast= 7.00D-02 DXMaxT set to 3.26D-01
 The second derivative matrix:
                          CH        CF        CCl      AHCH
           CH           1.04418
           CF           0.12271   1.76720
           CCl          0.00033   0.00000   0.01313
           AHCH        -0.14413   0.17461   0.00091   1.09481
     Eigenvalues ---    0.92315   1.215831000.000001000.00000
 RFO step:  Lambda=-8.31795410D-06 EMin= 9.23154775D-01
 Quartic linear search produced a step of  0.18404.
 Variable       Old X    -DE/DX   Delta X   Delta X   Delta X     New X
                                 (Linear)    (Quad)   (Total)
    CH        2.07646  -0.00302  -0.00655   0.00242  -0.00413   2.07233
    CF        2.45664   0.09313   0.00000   0.00000   0.00000   2.45664
   CCl        6.61404  -0.00054   0.00000   0.00000   0.00000   6.61404
   AHCH       1.95426  -0.01288  -0.01110  -0.00113  -0.01223   1.94203
         Item               Value     Threshold  Converged?
 Maximum Force            0.012880     0.000450     NO 
 RMS     Force            0.009355     0.000300     NO 
 Maximum Displacement     0.012232     0.001800     NO 
 RMS     Displacement     0.006455     0.001200     NO 
 Predicted change in Energy=-8.648962D-05
 GradGradGradGradGradGradGradGradGradGradGradGradGradGradGradGradGradGrad

 ---------------------------------------------------------------------------------------------------
                            Z-MATRIX (ANGSTROMS AND DEGREES)
   CD    Cent   Atom    N1       Length/X        N2       Alpha/Y        N3        Beta/Z          J
 ---------------------------------------------------------------------------------------------------
      1      1  C 
      2      2  F        1   1.300000(     1)
      3         X        1   2.000000(     2)      2   90.000(     7)
      4      3  H        1   1.096630(     3)      2  111.270(     8)      3    0.000(    12)      0
      5      4  H        1   1.096630(     4)      2  111.270(     9)      3  120.000(    13)      0
      6      5  H        1   1.096630(     5)      2  111.270(    10)      4 -120.000(    14)      0
      7      6  Cl       1   3.500000(     6)      3   90.000(    11)      2  180.000(    15)      0
 ---------------------------------------------------------------------------------------------------
                         Z-Matrix orientation:                         
 ---------------------------------------------------------------------
 Center     Atomic      Atomic             Coordinates (Angstroms)
 Number     Number       Type             X           Y           Z
 ---------------------------------------------------------------------
      1          6           0        0.000000    0.000000    0.000000
      2          9           0        0.000000    0.000000    1.300000
      3         -1           0        2.000000    0.000000    0.000000
      4          1           0        1.021928    0.000000   -0.397820
      5          1           0       -0.510964   -0.885016   -0.397820
      6          1           0       -0.510964    0.885016   -0.397820
      7         17           0        0.000000    0.000000   -3.500000
 ---------------------------------------------------------------------
                    Distance matrix (angstroms):
                    1          2          3          4          5
     1  C    0.000000
     2  F    1.300000   0.000000
     3  X    2.000000   2.385372   0.000000
     4  H    1.096630   1.981649   1.055881   0.000000
     5  H    1.096630   1.981649   2.691924   1.770032   0.000000
     6  H    1.096630   1.981649   2.691924   1.770032   1.770032
     7  Cl   3.500000   4.800000   4.031129   3.266168   3.266168
                    6          7
     6  H    0.000000
     7  Cl   3.266168   0.000000
 Stoichiometry    CH3ClF(1-)
 Framework group  C3V[C3(FCCl),3SGV(H)]
 Deg. of freedom     4
 Full point group                 C3V     NOp   6
 Largest Abelian subgroup         CS      NOp   2
 Largest concise Abelian subgroup CS      NOp   2
                         Standard orientation:                         
 ---------------------------------------------------------------------
 Center     Atomic      Atomic             Coordinates (Angstroms)
 Number     Number       Type             X           Y           Z
 ---------------------------------------------------------------------
      1          6           0        0.000000    0.000000   -1.399813
      2          9           0        0.000000    0.000000   -2.699813
      3          1           0        0.000000    1.021928   -1.001993
      4          1           0       -0.885016   -0.510964   -1.001993
      5          1           0        0.885016   -0.510964   -1.001993
      6         17           0        0.000000    0.000000    2.100187
 ---------------------------------------------------------------------
 Rotational constants (GHZ):    160.0552832      1.5755224      1.5755224
 Standard basis: 6-31+G(d) (6D, 7F)
 There are    49 symmetry adapted basis functions of A'  symmetry.
 There are    18 symmetry adapted basis functions of A"  symmetry.
 Integral buffers will be    262144 words long.
 Raffenetti 2 integral format.
 Two-electron integral symmetry is turned on.
    67 basis functions,   132 primitive gaussians,    67 cartesian basis functions
    18 alpha electrons       18 beta electrons
       nuclear repulsion energy        79.3261858186 Hartrees.
 NAtoms=    6 NActive=    6 NUniq=    4 SFac= 1.69D+00 NAtFMM=   80 NAOKFM=F Big=F
 One-electron integrals computed using PRISM.
 NBasis=    67 RedAO= T  NBF=    49    18
 NBsUse=    67 1.00D-06 NBFU=    49    18
 Initial guess read from the read-write file.
 B after Tr=     0.000000    0.000000    0.000000
         Rot=    1.000000    0.000000    0.000000    0.000000 Ang=   0.00 deg.
 Initial guess orbital symmetries:
       Occupied  (A1) (A1) (A1) (A1) (A1) (E) (E) (A1) (A1) (A1)
                 (A1) (E) (E) (E) (E) (A1) (E) (E)
       Virtual   (A1) (E) (E) (A1) (A1) (E) (E) (A1) (E) (E) (A1)
                 (E) (E) (A1) (A1) (A1) (A1) (E) (E) (A1) (E) (E)
                 (A1) (E) (E) (E) (E) (E) (E) (A1) (A1) (A1) (E)
                 (E) (E) (E) (A1) (E) (E) (A1) (E) (E) (A1) (E)
                 (E) (A1) (A1) (A1) (A1)
 Requested convergence on RMS density matrix=1.00D-08 within 128 cycles.
 Requested convergence on MAX density matrix=1.00D-06.
 Requested convergence on             energy=1.00D-06.
 No special actions if energy rises.
 Keep R1 ints in memory in canonical form, NReq=3559910.
 SCF Done:  E(RB3LYP) =  -600.028852755     A.U. after    9 cycles
             Convg  =    0.2506D-08             -V/T =  2.0041
 Calling FoFJK, ICntrl=      2127 FMM=F ISym2X=1 I1Cent= 0 IOpClX= 0 NMat=1 NMatS=1 NMatT=0.
 ***** Axes restored to original set *****
 -------------------------------------------------------------------
 Center     Atomic                   Forces (Hartrees/Bohr)
 Number     Number              X              Y              Z
 -------------------------------------------------------------------
      1        6           0.000000000    0.000000000   -0.096333998
      2        9           0.000000000    0.000000000    0.095761018
      3        1           0.000177769    0.000000000    0.000014913
      4        1          -0.000088884   -0.000153952    0.000014913
      5        1          -0.000088884    0.000153952    0.000014913
      6       17           0.000000000    0.000000000    0.000528241
 -------------------------------------------------------------------
 Cartesian Forces:  Max     0.096333998 RMS     0.032016303
 -----------------------------------------------------------------------------------------------
                       Internal Coordinate Forces (Hartree/Bohr or radian)
  Cent   Atom   N1       Length/X         N2         Alpha/Y        N3         Beta/Z          J
 -----------------------------------------------------------------------------------------------
      1  C 
      2  F        1   0.095761(     1)
         X        1   0.000000(     2)      2   0.000000(     7)
      3  H        1   0.000160(     3)      2  -0.000162(     8)      3   0.000000(    12)     0
      4  H        1   0.000160(     4)      2  -0.000162(     9)      3   0.000000(    13)     0
      5  H        1   0.000160(     5)      2  -0.000162(    10)      4   0.000000(    14)     0
      6  Cl       1  -0.000528(     6)      3   0.000000(    11)      2   0.000000(    15)     0
 -----------------------------------------------------------------------------------------------
 Internal  Forces:  Max     0.095761018 RMS     0.024725975

 GradGradGradGradGradGradGradGradGradGradGradGradGradGradGradGradGradGrad
 Berny optimization.
 Search for a local minimum.
 Step number   3 out of a maximum of   20 on scan point     2 out of   121
 All quantities printed in internal units (Hartrees-Bohrs-Radians)
 Update second derivatives using D2CorN and points    1    2    3
 DE= -8.70D-05 DEPred=-8.65D-05 R= 1.01D+00
 SS=  1.41D+00  RLast= 1.29D-02 DXNew= 5.4909D-01 3.8729D-02
 Trust test= 1.01D+00 RLast= 1.29D-02 DXMaxT set to 3.26D-01
 The second derivative matrix:
                          CH        CF        CCl      AHCH
           CH           1.07854
           CF           0.11815   1.76720
           CCl          0.00037   0.00000   0.01313
           AHCH        -0.10930   0.16858   0.00098   1.06063
     Eigenvalues ---    0.95993   1.179251000.000001000.00000
 RFO step:  Lambda=-3.12451358D-07 EMin= 9.59925348D-01
 Quartic linear search produced a step of  0.02392.
 Variable       Old X    -DE/DX   Delta X   Delta X   Delta X     New X
                                 (Linear)    (Quad)   (Total)
    CH        2.07233   0.00048  -0.00010   0.00051   0.00041   2.07274
    CF        2.45664   0.09576   0.00000   0.00000   0.00000   2.45664
   CCl        6.61404  -0.00053   0.00000   0.00000   0.00000   6.61404
   AHCH       1.94203  -0.00049  -0.00029  -0.00013  -0.00042   1.94161
         Item               Value     Threshold  Converged?
 Maximum Force            0.000487     0.000450     NO 
 RMS     Force            0.000484     0.000300     NO 
 Maximum Displacement     0.000420     0.001800     YES
 RMS     Displacement     0.000294     0.001200     YES
 Predicted change in Energy=-1.987481D-07
 GradGradGradGradGradGradGradGradGradGradGradGradGradGradGradGradGradGrad

 ---------------------------------------------------------------------------------------------------
                            Z-MATRIX (ANGSTROMS AND DEGREES)
   CD    Cent   Atom    N1       Length/X        N2       Alpha/Y        N3        Beta/Z          J
 ---------------------------------------------------------------------------------------------------
      1      1  C 
      2      2  F        1   1.300000(     1)
      3         X        1   2.000000(     2)      2   90.000(     7)
      4      3  H        1   1.096848(     3)      2  111.246(     8)      3    0.000(    12)      0
      5      4  H        1   1.096848(     4)      2  111.246(     9)      3  120.000(    13)      0
      6      5  H        1   1.096848(     5)      2  111.246(    10)      4 -120.000(    14)      0
      7      6  Cl       1   3.500000(     6)      3   90.000(    11)      2  180.000(    15)      0
 ---------------------------------------------------------------------------------------------------
                         Z-Matrix orientation:                         
 ---------------------------------------------------------------------
 Center     Atomic      Atomic             Coordinates (Angstroms)
 Number     Number       Type             X           Y           Z
 ---------------------------------------------------------------------
      1          6           0        0.000000    0.000000    0.000000
      2          9           0        0.000000    0.000000    1.300000
      3         -1           0        2.000000    0.000000    0.000000
      4          1           0        1.022298    0.000000   -0.397470
      5          1           0       -0.511149   -0.885336   -0.397470
      6          1           0       -0.511149    0.885336   -0.397470
      7         17           0        0.000000    0.000000   -3.500000
 ---------------------------------------------------------------------
                    Distance matrix (angstroms):
                    1          2          3          4          5
     1  C    0.000000
     2  F    1.300000   0.000000
     3  X    2.000000   2.385372   0.000000
     4  H    1.096848   1.981540   1.055407   0.000000
     5  H    1.096848   1.981540   2.692150   1.770672   0.000000
     6  H    1.096848   1.981540   2.692150   1.770672   1.770672
     7  Cl   3.500000   4.800000   4.031129   3.266617   3.266617
                    6          7
     6  H    0.000000
     7  Cl   3.266617   0.000000
 Stoichiometry    CH3ClF(1-)
 Framework group  C3V[C3(FCCl),3SGV(H)]
 Deg. of freedom     4
 Full point group                 C3V     NOp   6
 Largest Abelian subgroup         CS      NOp   2
 Largest concise Abelian subgroup CS      NOp   2
                         Standard orientation:                         
 ---------------------------------------------------------------------
 Center     Atomic      Atomic             Coordinates (Angstroms)
 Number     Number       Type             X           Y           Z
 ---------------------------------------------------------------------
      1          6           0        0.000000    0.000000   -1.399783
      2          9           0        0.000000    0.000000   -2.699783
      3          1           0        0.000000    1.022298   -1.002313
      4          1           0       -0.885336   -0.511149   -1.002313
      5          1           0        0.885336   -0.511149   -1.002313
      6         17           0        0.000000    0.000000    2.100217
 ---------------------------------------------------------------------
 Rotational constants (GHZ):    159.9394589      1.5755060      1.5755060
 Standard basis: 6-31+G(d) (6D, 7F)
 There are    49 symmetry adapted basis functions of A'  symmetry.
 There are    18 symmetry adapted basis functions of A"  symmetry.
 Integral buffers will be    262144 words long.
 Raffenetti 2 integral format.
 Two-electron integral symmetry is turned on.
    67 basis functions,   132 primitive gaussians,    67 cartesian basis functions
    18 alpha electrons       18 beta electrons
       nuclear repulsion energy        79.3233983229 Hartrees.
 NAtoms=    6 NActive=    6 NUniq=    4 SFac= 1.69D+00 NAtFMM=   80 NAOKFM=F Big=F
 One-electron integrals computed using PRISM.
 NBasis=    67 RedAO= T  NBF=    49    18
 NBsUse=    67 1.00D-06 NBFU=    49    18
 Initial guess read from the read-write file.
 B after Tr=     0.000000    0.000000    0.000000
         Rot=    1.000000    0.000000    0.000000    0.000000 Ang=   0.00 deg.
 Initial guess orbital symmetries:
       Occupied  (A1) (A1) (A1) (A1) (A1) (E) (E) (A1) (A1) (A1)
                 (A1) (E) (E) (E) (E) (A1) (E) (E)
       Virtual   (A1) (E) (E) (A1) (A1) (E) (E) (A1) (E) (E) (A1)
                 (E) (E) (A1) (A1) (A1) (A1) (E) (E) (A1) (E) (E)
                 (A1) (E) (E) (E) (E) (E) (E) (A1) (A1) (A1) (E)
                 (E) (E) (E) (A1) (E) (E) (A1) (E) (E) (A1) (E)
                 (E) (A1) (A1) (A1) (A1)
 Requested convergence on RMS density matrix=1.00D-08 within 128 cycles.
 Requested convergence on MAX density matrix=1.00D-06.
 Requested convergence on             energy=1.00D-06.
 No special actions if energy rises.
 Keep R1 ints in memory in canonical form, NReq=3559910.
 SCF Done:  E(RB3LYP) =  -600.028852968     A.U. after    6 cycles
             Convg  =    0.4525D-08             -V/T =  2.0041
 Calling FoFJK, ICntrl=      2127 FMM=F ISym2X=1 I1Cent= 0 IOpClX= 0 NMat=1 NMatS=1 NMatT=0.
 ***** Axes restored to original set *****
 -------------------------------------------------------------------
 Center     Atomic                   Forces (Hartrees/Bohr)
 Number     Number              X              Y              Z
 -------------------------------------------------------------------
      1        6           0.000000000    0.000000000   -0.096349655
      2        9           0.000000000    0.000000000    0.095820443
      3        1           0.000010562    0.000000000    0.000000912
      4        1          -0.000005281   -0.000009147    0.000000912
      5        1          -0.000005281    0.000009147    0.000000912
      6       17           0.000000000    0.000000000    0.000526475
 -------------------------------------------------------------------
 Cartesian Forces:  Max     0.096349655 RMS     0.032028712
 -----------------------------------------------------------------------------------------------
                       Internal Coordinate Forces (Hartree/Bohr or radian)
  Cent   Atom   N1       Length/X         N2         Alpha/Y        N3         Beta/Z          J
 -----------------------------------------------------------------------------------------------
      1  C 
      2  F        1   0.095820(     1)
         X        1   0.000000(     2)      2   0.000000(     7)
      3  H        1   0.000010(     3)      2  -0.000010(     8)      3   0.000000(    12)     0
      4  H        1   0.000010(     4)      2  -0.000010(     9)      3   0.000000(    13)     0
      5  H        1   0.000010(     5)      2  -0.000010(    10)      4   0.000000(    14)     0
      6  Cl       1  -0.000526(     6)      3   0.000000(    11)      2   0.000000(    15)     0
 -----------------------------------------------------------------------------------------------
 Internal  Forces:  Max     0.095820443 RMS     0.024741106

 GradGradGradGradGradGradGradGradGradGradGradGradGradGradGradGradGradGrad
 Berny optimization.
 Search for a local minimum.
 Step number   4 out of a maximum of   20 on scan point     2 out of   121
 All quantities printed in internal units (Hartrees-Bohrs-Radians)
 Update second derivatives using D2CorN and points    1    2    4
 DE= -2.13D-07 DEPred=-1.99D-07 R= 1.07D+00
 Trust test= 1.07D+00 RLast= 5.88D-04 DXMaxT set to 3.26D-01
 The second derivative matrix:
                          CH        CF        CCl      AHCH
           CH           1.08321
           CF           0.11615   1.76720
           CCl          0.00041   0.00000   0.01313
           AHCH        -0.09795   0.16891   0.00105   1.05060
     Eigenvalues ---    0.96761   1.166201000.000001000.00000
 RFO step:  Lambda= 0.00000000D+00 EMin= 9.67606508D-01
 Quartic linear search produced a step of  0.06332.
 Variable       Old X    -DE/DX   Delta X   Delta X   Delta X     New X
                                 (Linear)    (Quad)   (Total)
    CH        2.07274   0.00003   0.00003   0.00000   0.00003   2.07277
    CF        2.45664   0.09582   0.00000   0.00000   0.00000   2.45664
   CCl        6.61404  -0.00053   0.00000   0.00000   0.00000   6.61404
   AHCH       1.94161  -0.00003  -0.00003   0.00000  -0.00003   1.94158
         Item               Value     Threshold  Converged?
 Maximum Force            0.000029     0.000450     YES
 RMS     Force            0.000029     0.000300     YES
 Maximum Displacement     0.000027     0.001800     YES
 RMS     Displacement     0.000019     0.001200     YES
 Predicted change in Energy=-7.101937D-10
 Optimization completed.
    -- Stationary point found.
                       ----------------------------
                       !   Optimized Parameters   !
                       ! (Angstroms and Degrees)  !
 ----------------------                            ----------------------
 !      Name          Value   Derivative information (Atomic Units)     !
 ------------------------------------------------------------------------
 !       CH          1.0968   -DE/DX =    0.0                           !
 !       CF          1.3      -DE/DX =    0.0958                        !
 !       CCl         3.5      -DE/DX =   -0.0005                        !
 !      AHCH       111.2461   -DE/DX =    0.0                           !
 ------------------------------------------------------------------------
 GradGradGradGradGradGradGradGradGradGradGradGradGradGradGradGradGradGrad

 ---------------------------------------------------------------------------------------------------
                            Z-MATRIX (ANGSTROMS AND DEGREES)
   CD    Cent   Atom    N1       Length/X        N2       Alpha/Y        N3        Beta/Z          J
 ---------------------------------------------------------------------------------------------------
      1      1  C 
      2      2  F        1   1.500000(     1)
      3         X        1   2.000000(     2)      2   90.000(     7)
      4      3  H        1   1.096848(     3)      2  111.246(     8)      3    0.000(    12)      0
      5      4  H        1   1.096848(     4)      2  111.246(     9)      3  120.000(    13)      0
      6      5  H        1   1.096848(     5)      2  111.246(    10)      4 -120.000(    14)      0
      7      6  Cl       1   3.500000(     6)      3   90.000(    11)      2  180.000(    15)      0
 ---------------------------------------------------------------------------------------------------
                         Z-Matrix orientation:                         
 ---------------------------------------------------------------------
 Center     Atomic      Atomic             Coordinates (Angstroms)
 Number     Number       Type             X           Y           Z
 ---------------------------------------------------------------------
      1          6           0        0.000000    0.000000    0.000000
      2          9           0        0.000000    0.000000    1.500000
      3         -1           0        2.000000    0.000000    0.000000
      4          1           0        1.022298    0.000000   -0.397470
      5          1           0       -0.511149   -0.885336   -0.397470
      6          1           0       -0.511149    0.885336   -0.397470
      7         17           0        0.000000    0.000000   -3.500000
 ---------------------------------------------------------------------
                    Distance matrix (angstroms):
                    1          2          3          4          5
     1  C    0.000000
     2  F    1.500000   0.000000
     3  X    2.000000   2.500000   0.000000
[...]
                          26        27        28        29        30
     Eigenvalues --  -600.02160-600.00105-599.98207-599.96601-599.95267
           CH           1.08196   1.07983   1.07896   1.07887   1.07920
           CF           1.70000   1.90000   2.10000   2.30000   2.50000
           CCl          3.10000   3.10000   3.10000   3.10000   3.10000
           AHCH       102.63381  98.78662  95.49159  92.90007  91.03366
                          31        32        33        34        35
     Eigenvalues --  -599.94166-599.93261-599.92521-599.93421-599.94118
           CH           1.07967   1.07997   1.08043   1.08012   1.07961
           CF           2.70000   2.90000   3.10000   3.10000   2.90000
           CCl          3.10000   3.10000   3.10000   2.90000   2.90000
           AHCH        89.79098  89.00131  88.48194  87.34973  87.85904
                          36        37        38        39        40
     Eigenvalues --  -599.94963-599.95983-599.97205-599.98664-600.00373
           CH           1.07907   1.07842   1.07805   1.07797   1.07883
           CF           2.70000   2.50000   2.30000   2.10000   1.90000
           CCl          2.90000   2.90000   2.90000   2.90000   2.90000
           AHCH        88.64794  89.92709  91.83789  94.56359  98.03999
                          41        42        43        44        45
     Eigenvalues --  -600.02211-600.03577-600.02383-599.92149-599.91111
           CH           1.08088   1.08517   1.09420   1.11417   1.11203
           CF           1.70000   1.50000   1.30000   1.10000   1.10000
           CCl          2.90000   2.90000   2.90000   2.90000   2.70000
           AHCH       102.06934 106.40119 110.82502 115.09744 114.46427
                          46        47        48        49        50
     Eigenvalues --  -600.01606-600.03100-600.02065-600.00544-599.99101
           CH           1.09209   1.08331   1.07920   1.07729   1.07680
           CF           1.30000   1.50000   1.70000   1.90000   2.10000
           CCl          2.70000   2.70000   2.70000   2.70000   2.70000
           AHCH       110.09252 105.52178 100.95200  96.65881  92.94724
                          51        52        53        54        55
     Eigenvalues --  -599.97849-599.96778-599.95868-599.95103-599.94465
           CH           1.07718   1.07792   1.07869   1.07924   1.07982
           CF           2.30000   2.50000   2.70000   2.90000   3.10000
           CCl          2.70000   2.70000   2.70000   2.70000   2.70000
           AHCH        90.08473  88.11775  86.87417  86.11185  85.64169
                          56        57        58        59        60
     Eigenvalues --  -599.95649-599.96210-599.96870-599.97634-599.98498
           CH           1.08002   1.07937   1.07857   1.07752   1.07652
           CF           3.10000   2.90000   2.70000   2.50000   2.30000
           CCl          2.50000   2.50000   2.50000   2.50000   2.50000
           AHCH        83.24926  83.63903  84.29341  85.43949  87.37034
                          61        62        63        64        65
     Eigenvalues --  -599.99462-600.00522-600.01572-600.02092-600.00112
           CH           1.07570   1.07577   1.07741   1.08126   1.08959
           CF           2.10000   1.90000   1.70000   1.50000   1.30000
           CCl          2.50000   2.50000   2.50000   2.50000   2.50000
           AHCH        90.31353  94.28338  98.91958 103.80840 108.63653
                          66        67        68        69        70
     Eigenvalues --  -599.89192-599.85878-599.97493-600.00263-600.00542
           CH           1.10861   1.10614   1.08744   1.07934   1.07573
           CF           1.10000   1.10000   1.30000   1.50000   1.70000
           CCl          2.50000   2.30000   2.30000   2.30000   2.30000
           AHCH       113.15636 110.78041 106.04880 100.91384  95.64205
                          71        72        73        74        75
     Eigenvalues --  -600.00188-599.99672-599.99098-599.98503-599.97926
           CH           1.07458   1.07520   1.07666   1.07812   1.07917
           CF           1.90000   2.10000   2.30000   2.50000   2.70000
           CCl          2.30000   2.30000   2.30000   2.30000   2.30000
           AHCH        90.66376  86.54449  83.68385  81.94678  80.95436
                          76        77        78        79        80
     Eigenvalues --  -599.97399-599.96936-599.98224-599.98571-599.98939
           CH           1.08014   1.08077   1.08256   1.08183   1.08094
           CF           2.90000   3.10000   3.10000   2.90000   2.70000
           CCl          2.30000   2.30000   2.10000   2.10000   2.10000
           AHCH        80.45111  80.17753  76.54048  76.67392  77.01197
                          81        82        83        84        85
     Eigenvalues --  -599.99291-599.99554-599.99629-599.99414-599.98784
           CH           1.07964   1.07779   1.07602   1.07498   1.07627
           CF           2.50000   2.30000   2.10000   1.90000   1.70000
           CCl          2.10000   2.10000   2.10000   2.10000   2.10000
           AHCH        77.74681  79.20943  81.84843  85.92112  91.07976
                          86        87        88        89        90
     Eigenvalues --  -599.97321-599.93323-599.80618-599.73207-599.87349
           CH           1.08071   1.08990   1.11014   1.13584   1.10442
           CF           1.50000   1.30000   1.10000   1.10000   1.30000
           CCl          2.10000   2.10000   2.10000   1.90000   1.90000
           AHCH        96.59611 101.96739 106.84530 101.29682  96.65325
                          91        92        93        94        95
     Eigenvalues --  -599.93009-599.96037-599.97929-599.99044-599.99554
           CH           1.08882   1.08007   1.07737   1.07834   1.08059
           CF           1.50000   1.70000   1.90000   2.10000   2.30000
           CCl          1.90000   1.90000   1.90000   1.90000   1.90000
           AHCH        91.36355  85.81745  80.64640  76.74886  74.40674
                          96        97        98        99       100
     Eigenvalues --  -599.99665-599.99558-599.99358-599.99132-599.98463
           CH           1.08263   1.08387   1.08475   1.08537   1.09010
           CF           2.50000   2.70000   2.90000   3.10000   3.10000
           CCl          1.90000   1.90000   1.90000   1.90000   1.70000
           AHCH        73.23097  72.69511  72.51647  72.50197  68.34004
                         101       102       103       104       105
     Eigenvalues --  -599.98590-599.98645-599.98526-599.98052-599.96932
           CH           1.08940   1.08846   1.08693   1.08472   1.08220
           CF           2.90000   2.70000   2.50000   2.30000   2.10000
           CCl          1.70000   1.70000   1.70000   1.70000   1.70000
           AHCH        68.26228  68.30723  68.63813  69.59924  71.69559
                         106       107       108       109       110
     Eigenvalues --  -599.94835-599.91523-599.86753-599.79364-599.64058
           CH           1.08168   1.08770   1.10543   1.13983   1.21067
           CF           1.90000   1.70000   1.50000   1.30000   1.10000
           CCl          1.70000   1.70000   1.70000   1.70000   1.70000
           AHCH        75.44398  80.62108  86.18264  91.24233  95.24721
                         111       112       113       114       115
     Eigenvalues --  -599.52871-599.67834-599.76393-599.82730-599.87405
           CH           1.39089   1.20305   1.13279   1.09990   1.08880
           CF           1.10000   1.30000   1.50000   1.70000   1.90000
           CCl          1.50000   1.50000   1.50000   1.50000   1.50000
           AHCH        89.94185  86.72046  81.67091  75.91433  70.61923
                         116       117       118       119       120
     Eigenvalues --  -599.90433-599.92098-599.92877-599.93168-599.93217
           CH           1.08878   1.09189   1.09455   1.09632   1.09747
           CF           2.10000   2.30000   2.50000   2.70000   2.90000
           CCl          1.50000   1.50000   1.50000   1.50000   1.50000
           AHCH        66.93834  64.99660  64.19486  63.98857  64.04303
                         121
     Eigenvalues --  -599.93155
           CH           1.09818
           CF           3.10000
           CCl          1.50000
           AHCH        64.19029
 ---------------------------------------------------------------------------------------------------
                            Z-MATRIX (ANGSTROMS AND DEGREES)
   CD    Cent   Atom    N1       Length/X        N2       Alpha/Y        N3        Beta/Z          J
 ---------------------------------------------------------------------------------------------------
      1      1  C 
      2      2  F        1   3.100000(     1)
      3         X        1   2.000000(     2)      2   90.000(     7)
      4      3  H        1   1.098182(     3)      2   64.190(     8)      3    0.000(    12)      0
      5      4  H        1   1.098182(     4)      2   64.190(     9)      3  120.000(    13)      0
      6      5  H        1   1.098182(     5)      2   64.190(    10)      4 -120.000(    14)      0
      7      6  Cl       1   1.500000(     6)      3   90.000(    11)      2  180.000(    15)      0
 ---------------------------------------------------------------------------------------------------
                         Z-Matrix orientation:                         
 ---------------------------------------------------------------------
 Center     Atomic      Atomic             Coordinates (Angstroms)
 Number     Number       Type             X           Y           Z
 ---------------------------------------------------------------------
      1          6           0        0.000000    0.000000    0.000000
      2          9           0        0.000000    0.000000    3.100000
      3         -1           0        2.000000    0.000000    0.000000
      4          1           0        0.988633    0.000000    0.478131
      5          1           0       -0.494316   -0.856181    0.478131
      6          1           0       -0.494316    0.856181    0.478131
      7         17           0        0.000000    0.000000   -1.500000
 ---------------------------------------------------------------------
                    Distance matrix (angstroms):
                    1          2          3          4          5
     1  C    0.000000
     2  F    3.100000   0.000000
     3  X    2.000000   3.689173   0.000000
     4  H    1.098182   2.802070   1.118692   0.000000
     5  H    1.098182   2.802070   2.680162   1.712362   0.000000
     6  H    1.098182   2.802070   2.680162   1.712362   1.712362
     7  Cl   1.500000   4.600000   2.500000   2.211424   2.211424
                    6          7
     6  H    0.000000
     7  Cl   2.211424   0.000000
 Stoichiometry    CH3ClF(1-)
 Framework group  C3V[C3(FCCl),3SGV(H)]
 Deg. of freedom     4
 Full point group                 C3V     NOp   6
 Largest Abelian subgroup         CS      NOp   2
 Largest concise Abelian subgroup CS      NOp   2
                         Standard orientation:                         
 ---------------------------------------------------------------------
 Center     Atomic      Atomic             Coordinates (Angstroms)
 Number     Number       Type             X           Y           Z
 ---------------------------------------------------------------------
      1          6           0        0.000000    0.000000    0.109554
      2          9           0        0.000000    0.000000   -2.990446
      3          1           0        0.000000    0.988633   -0.368576
      4          1           0       -0.856181   -0.494316   -0.368576
      5          1           0        0.856181   -0.494316   -0.368576
      6         17           0        0.000000    0.000000    1.609554
 ---------------------------------------------------------------------
 Rotational constants (GHZ):    171.0176010      1.9250949      1.9250949

 **********************************************************************

            Population analysis using the SCF density.

 **********************************************************************

 Orbital symmetries:
       Occupied  (A1) (A1) (A1) (A1) (A1) (E) (E) (A1) (A1) (A1)
                 (A1) (E) (E) (E) (E) (A1) (E) (E)
       Virtual   (A1) (A1) (E) (E) (E) (E) (A1) (A1) (A1) (E) (E)
                 (A1) (A1) (E) (E) (A1) (A1) (E) (E) (E) (E) (A1)
                 (E) (E) (A1) (E) (E) (E) (E) (A1) (A1) (A1) (E)
                 (E) (A1) (E) (E) (A1) (E) (E) (E) (E) (A1) (E)
                 (E) (A1) (A1) (A1) (A1)
 The electronic state is 1-A1.
 Alpha  occ. eigenvalues -- -101.41278 -24.29106 -10.05964  -9.33620  -7.09911
 Alpha  occ. eigenvalues --   -7.08991  -7.08991  -0.80079  -0.72396  -0.50613
 Alpha  occ. eigenvalues --   -0.32095  -0.31674  -0.31674  -0.14812  -0.14812
 Alpha  occ. eigenvalues --   -0.01187  -0.01118  -0.01118
 Alpha virt. eigenvalues --    0.12293   0.16562   0.17416   0.17416   0.22908
 Alpha virt. eigenvalues --    0.22908   0.23622   0.29703   0.31893   0.32136
 Alpha virt. eigenvalues --    0.32136   0.41604   0.48274   0.48555   0.48555
 Alpha virt. eigenvalues --    0.55180   0.71411   0.73070   0.73070   0.78075
 Alpha virt. eigenvalues --    0.78075   0.84624   0.93231   0.93231   0.94332
 Alpha virt. eigenvalues --    1.00790   1.00790   1.17063   1.17063   1.23885
 Alpha virt. eigenvalues --    1.37629   1.48167   1.84166   1.84166   1.85535
 Alpha virt. eigenvalues --    1.93723   1.93723   2.19619   2.22700   2.22700
 Alpha virt. eigenvalues --    2.22951   2.22951   2.28045   2.41827   2.41827
 Alpha virt. eigenvalues --    2.61071   4.36760   4.54692   5.08650
          Condensed to atoms (all electrons):
              1          2          3          4          5          6
     1  C    5.591784   0.032558   0.395160   0.395160   0.395160  -0.026091
     2  F    0.032558   9.937786  -0.003251  -0.003251  -0.003251  -0.012570
     3  H    0.395160  -0.003251   0.476579  -0.026674  -0.026674  -0.070796
     4  H    0.395160  -0.003251  -0.026674   0.476579  -0.026674  -0.070796
     5  H    0.395160  -0.003251  -0.026674  -0.026674   0.476579  -0.070796
     6  Cl  -0.026091  -0.012570  -0.070796  -0.070796  -0.070796  17.286267
 Mulliken atomic charges:
              1
     1  C   -0.783730
     2  F   -0.948021
     3  H    0.255657
     4  H    0.255657
     5  H    0.255657
     6  Cl  -0.035219
 Sum of Mulliken atomic charges =  -1.00000
 Mulliken charges with hydrogens summed into heavy atoms:
              1
     1  C   -0.016760
     2  F   -0.948021
     6  Cl  -0.035219
 Sum of Mulliken charges with hydrogens summed into heavy atoms =  -1.00000
 Electronic spatial extent (au):  <R**2>=            552.5130
 Charge=             -1.0000 electrons
 Dipole moment (field-independent basis, Debye):
    X=              0.0000    Y=              0.0000    Z=             11.4086  Tot=             11.4086
 Quadrupole moment (field-independent basis, Debye-Ang):
   XX=            -27.7295   YY=            -27.7295   ZZ=            -73.1779
   XY=              0.0000   XZ=              0.0000   YZ=              0.0000
 Traceless Quadrupole moment (field-independent basis, Debye-Ang):
   XX=             15.1495   YY=             15.1495   ZZ=            -30.2989
   XY=              0.0000   XZ=              0.0000   YZ=              0.0000
 Octapole moment (field-independent basis, Debye-Ang**2):
  XXX=              0.0000  YYY=              0.7066  ZZZ=            123.3396  XYY=              0.0000
  XXY=             -0.7066  XXZ=              0.2125  XZZ=              0.0000  YZZ=              0.0000
  YYZ=              0.2125  XYZ=              0.0000
 Hexadecapole moment (field-independent basis, Debye-Ang**3):
 XXXX=            -39.2865 YYYY=            -39.2865 ZZZZ=          -1005.9209 XXXY=              0.0000
 XXXZ=              0.0000 YYYX=              0.0000 YYYZ=             -0.2240 ZZZX=              0.0000
 ZZZY=              0.0000 XXYY=            -13.0955 XXZZ=           -115.2285 YYZZ=           -115.2285
 XXYZ=              0.2240 YYXZ=              0.0000 ZZXY=              0.0000
 N-N= 8.970650029550D+01 E-N=-1.611658897070D+03  KE= 5.979748979110D+02
 Symmetry A'   KE= 5.444393349878D+02
 Symmetry A"   KE= 5.353556292320D+01
 1|1|UNPC-POLARIS|Scan|RB3LYP|6-31+G(d)|C1H3Cl1F1(1-)|RAIDEN|27-Jun-201
 3|1||#B3LYP/6-31+G* opt=z-matrix||CH4 + Cl-||-1,1|C|F,1,CF|X,1,2.,2,90
 .|H,1,CH,2,AHCH,3,0.,0|H,1,CH,2,AHCH,3,120.,0|H,1,CH,2,AHCH,4,-120.,0|
 Cl,1,CCl,3,90.,2,180.,0||CH=1.09818191|CF=3.1,s,10,0.2|CCl=1.5,s,10,-0
 .2|AHCH=64.19028789||Version=IA32W-G09RevA.02|State=1-A1|HF=-599.93007
 26,-600.028853,-600.0367282,-600.0183496,-599.9951116,-599.9737356,-59
 9.9557621,-599.9409931,-599.9289252,-599.9191082,-599.9111428,-599.917
 5578,-599.9252849,-599.9347734,-599.94639,-599.9605439,-599.9776973,-5
 99.998043,-600.0201444,-600.0374692,-600.0287036,-599.9291284,-599.926
 7245,-600.0274105,-600.037434,-600.021596,-600.001047,-599.9820747,-59
 9.9660097,-599.9526746,-599.9416606,-599.9326134,-599.925209,-599.9342
 116,-599.9411793,-599.9496309,-599.95983,-599.9720537,-599.9866369,-60
 0.0037308,-600.0221071,-600.0357664,-600.0238321,-599.9214888,-599.911
 1055,-600.0160646,-600.0310029,-600.020653,-600.0054431,-599.9910111,-
 599.9784885,-599.9677841,-599.9586847,-599.9510306,-599.9446486,-599.9
 56488,-599.9620984,-599.9687036,-599.9763405,-599.9849828,-599.994625,
 -600.005223,-600.0157249,-600.0209235,-600.0011246,-599.891921,-599.85
 8777,-599.9749321,-600.002634,-600.0054206,-600.0018834,-599.9967201,-
 599.9909784,-599.9850285,-599.9792599,-599.9739851,-599.9693559,-599.9
 822435,-599.9857075,-599.989391,-599.9929059,-599.9955357,-599.9962899
 ,-599.9941417,-599.9878411,-599.9732149,-599.9332261,-599.8061801,-599
 .7320665,-599.8734944,-599.9300918,-599.9603683,-599.979291,-599.99043
 59,-599.9955417,-599.9966467,-599.9955831,-599.9935809,-599.9913154,-5
 99.9846253,-599.9859045,-599.9864482,-599.9852601,-599.9805151,-599.96
 93245,-599.9483498,-599.9152291,-599.8675285,-599.7936402,-599.6405798
 ,-599.5287145,-599.6783421,-599.7639334,-599.8273011,-599.8740509,-599
 .9043318,-599.9209814,-599.9287669,-599.9316789,-599.9321678,-599.9315
 463|RMSD=3.733e-009,4.525e-009,3.325e-009,2.735e-009,2.782e-009,3.743e
 -009,9.580e-009,4.791e-009,1.099e-009,1.176e-009,1.199e-009,9.939e-010
 ,6.101e-010,9.393e-010,1.795e-009,5.445e-009,8.591e-009,9.816e-009,3.0
 61e-009,3.550e-009,3.962e-009,3.938e-009,2.953e-009,7.894e-009,3.927e-
 009,3.938e-009,2.863e-009,4.279e-009,3.412e-009,4.364e-009,2.167e-009,
 8.482e-010,1.030e-009,2.821e-009,5.145e-010,8.698e-010,1.793e-009,4.56
 9e-009,9.893e-009,3.379e-009,4.890e-009,5.435e-009,5.439e-009,5.464e-0
 09,4.514e-009,7.172e-009,5.604e-009,1.682e-009,5.738e-009,4.702e-009,2
 .741e-009,2.019e-009,2.437e-009,6.561e-010,6.581e-010,3.694e-009,7.367
 e-009,6.889e-010,1.460e-009,7.024e-009,8.844e-009,3.801e-009,6.303e-00
 9,2.157e-009,7.832e-009,9.422e-009,8.811e-009,3.083e-009,6.878e-009,8.
 408e-009,6.315e-009,4.076e-009,4.808e-009,2.394e-009,9.412e-010,5.721e
 -009,3.519e-009,4.137e-009,2.027e-009,2.378e-009,5.527e-009,1.402e-009
 ,1.597e-009,2.213e-009,6.611e-009,2.281e-009,8.508e-009,2.747e-009,1.7
 80e-009,4.473e-009,6.577e-009,1.782e-009,6.143e-009,2.938e-009,1.204e-
 009,2.564e-009,3.331e-009,3.470e-009,1.309e-009,4.664e-009,7.160e-009,
 1.765e-009,6.841e-009,2.941e-009,2.529e-009,2.091e-009,3.976e-009,2.68
 4e-009,6.311e-009,2.423e-009,4.080e-009,5.892e-009,3.057e-009,5.503e-0
 09,7.817e-009,4.020e-009,3.097e-009,5.483e-009,6.879e-009,3.970e-009,5
 .852e-009|PG=C03V [C3(F1C1Cl1),3SGV(H1)]||@


 BULLDOZER: SOMEONE WHO SLEEPS THROUGH SPEECHES.
 Job cpu time:  0 days  0 hours 15 minutes 43.0 seconds.
 File lengths (MBytes):  RWF=      5 Int=      0 D2E=      0 Chk=      2 Scr=      1
 Normal termination of Gaussian 09 at Thu Jun 27 14:21:49 2013.
